data.lmp (written by xyz2lammps.py)

272    atoms

4      atom types

0.0              10.273  xlo xhi
0.0  17.893164239268753  ylo yhi
0.0  14.144735605166211  zlo zhi
-0.3185741774749357   4.8515277921813516 -2.8613195836524885 xy xz yz

Atoms

	1   3                0.14               3.996               3.364
	2   3               2.465              17.317               3.413
	3   3               2.642               2.366               3.358
	4   3               0.117               7.049               3.435
	5   4               4.499               2.576               0.582
	6   4               1.895               7.089               0.583
	7   4                1.89               1.083               0.616
	8   4              -0.608               5.551               0.631
	9   2              -0.856               2.769               2.248
	10  2                1.76               7.056               2.268
	11  2              -0.473               5.535               2.219
	12  2               2.033               0.941                2.25
	13  2              -0.287               4.135              -0.046
	14  2               2.161              -0.471              -0.056
	15  2               0.413               1.584               0.076
	16  2               3.095                6.01              -0.009
	17  2               0.467                6.59              -0.101
	18  2               3.116               1.987              -0.111
	19  2              -0.797               8.239               2.281
	20  2               1.705               3.641               2.254
	21  2               3.313               0.996               4.282
	22  2               0.755               5.445               4.321
	23  2               -1.55               3.905               4.339
	24  2               1.064               8.371               4.368
	25  2              -1.494               7.087                4.38
	26  2               0.937               2.552               4.376
	27  1               -0.23               0.175               2.597
	28  1                2.13               4.573               2.454
	29  1              -1.086               1.126               4.846
	30  1               1.753               5.473               4.664
	31  1              -1.572               3.818                5.22
	32  1               1.187              -1.227               5.426
	33  1               1.138               2.557                 5.3
	34  1              -1.337               7.129               5.488
	35  3              -2.403               2.464              10.511
	36  3               0.069               15.97              10.492
	37  3                0.23               1.092              10.367
	38  3              -2.415               5.497              10.521
	39  4               1.996               1.231               7.584
	40  4              -0.615               5.684               7.703
	41  4              -0.419              -0.331               7.718
	42  4              -3.044               4.175               7.697
	43  2              -3.393               1.282               9.235
	44  2              -0.648               5.688               9.369
	45  2              -2.915               4.161               9.312
	46  2              -0.286              -0.467                 9.4
	47  2              -2.665               2.624               6.932
	48  2               -0.24              -1.821                 7.1
	49  2              -1.939               0.024               7.302
	50  2               0.397               4.495               7.091
	51  2              -2.089               5.255               7.001
	52  2               0.622               0.597               6.952
	53  2              -3.337               6.896               9.429
	54  2               -0.85               2.384               9.279
	55  2               0.958              -0.338              11.369
	56  2              -1.697               4.042              11.444
	57  2              -3.997               2.368              11.416
	58  2                -1.4                6.87              11.428
	59  2              -4.122               5.724              11.449
	60  2               -1.42               1.249              11.392
	61  1              -2.737              -1.248               9.151
	62  1              -0.293               3.261                9.26
	63  1              -3.254              -0.152              11.492
	64  1              -1.892               3.859              12.491
	65  1              -4.517               3.216              11.342
	66  1              -1.599              -1.493              12.273
	67  1              -1.435               0.916              12.381
	68  1              -4.542               5.355              12.331
	69  3               0.021              12.855               3.361
	70  3               2.618                8.49               3.275
	71  3               2.636              11.503               3.408
	72  3              -0.167              15.924               3.583
	73  4                4.33              11.598                0.58
	74  4               1.705              15.961               0.636
	75  4               1.818              10.027               0.557
	76  4              -0.817              14.484               0.673
	77  2              -0.928               11.53               2.233
	78  2               1.402              16.062               2.235
	79  2              -0.736              14.452                2.29
	80  2                2.04               9.953               2.234
	81  2              -0.531              12.979               0.001
	82  2               2.308               8.501               0.015
	83  2               0.344              10.468               0.128
	84  2                2.81              14.863               0.087
	85  2               0.234              15.424              -0.108
	86  2               2.886               11.15              -0.172
	87  2              -0.962              17.118               2.413
	88  2               1.678              12.785               2.271
	89  2               3.305               9.897               4.228
	90  2               0.646              14.324               4.267
	91  2              -1.646              12.741               4.267
	92  2               0.845              17.051               4.485
	93  2              -1.829               16.13               4.436
	94  2               1.014              11.629               4.288
	95  1              -0.224               8.991               2.251
	96  1               2.222              13.632               2.174
	97  1              -0.802                9.87               4.582
	98  1               1.544              14.413                4.62
	99  1              -1.761              12.765               5.234
	100  1               1.337               8.251               5.277
	101  1               0.879              11.648               5.291
	102  1              -1.929              16.178               5.401
	103  3              -2.408              11.506               10.63
	104  3               0.192               7.076              10.475
	105  3               0.146                10.0              10.492
	106  3              -2.726              14.538               10.55
	107  4               1.976              10.188               7.645
	108  4              -0.877              14.551                7.79
	109  4              -0.521               8.647               7.639
	110  4              -3.361              13.075               7.773
	111  2              -3.349              10.172               9.248
	112  2              -0.961              14.665               9.385
	113  2              -3.219              12.964               9.384
	114  2              -0.535               8.596               9.322
	115  2              -3.036              11.606                6.97
	116  2              -0.165               7.129               7.024
	117  2               -2.06               9.092               7.162
	118  2               0.283              13.536               7.196
	119  2              -2.272              14.096               7.018
	120  2               0.531               9.775                6.97
	121  2              -3.583              15.701               9.415
	122  2              -0.816               11.41               9.565
	123  2               0.744               8.498               11.48
	124  2              -1.956              13.101              11.613
	125  2              -4.099              11.352              11.346
	126  2              -1.641              15.958              11.484
	127  2              -4.425              14.641              11.415
	128  2              -1.535              10.112              11.506
	129  1               -3.04               7.741               9.343
	130  1              -0.376               12.22               9.349
	131  1              -3.506               8.532              11.804
	132  1              -0.971              13.287              11.742
	133  1              -4.364              11.745              12.225
	134  1              -1.289               7.329              12.379
	135  1              -1.486               10.05              12.479
	136  1              -4.375              14.678              12.504
	137  3               5.125               3.851               3.337
	138  3               7.617              17.448               3.375
	139  3               7.817               2.513               3.317
	140  3               5.229                6.92               3.391
	141  4               9.614               2.623               0.611
	142  4               7.167                6.99               0.583
	143  4               7.159               1.064               0.711
	144  4               4.498               5.502               0.589
	145  2               4.325               2.636                2.28
	146  2               6.985               7.029               2.284
	147  2               4.557               5.353               2.225
	148  2               7.232               0.961               2.287
	149  2               4.695               3.994              -0.257
	150  2               7.484              -0.393              -0.031
	151  2               5.588               1.355               0.158
	152  2               8.161               5.845              -0.032
	153  2               5.601               6.449              -0.121
	154  2               8.103               2.203              -0.084
	155  2               4.279               8.153               2.219
	156  2               6.844               3.666               2.115
	157  2               8.364               1.079               4.457
	158  2               5.903               5.306               4.257
	159  2               3.462               3.786               4.253
	160  2               6.215               8.107               4.312
	161  2               3.474               7.032               4.296
	162  2               6.042               2.457               4.282
	163  1               4.909              -0.207                1.75
	164  1               7.342               4.599               2.056
	165  1               4.246               1.089               4.615
	166  1               6.784               5.415               4.172
	167  1               3.437               3.647               5.234
	168  1               6.078              -0.678                5.28
	169  1               6.305               2.706                5.28
	170  1               3.442               6.764               5.299
	171  3               2.804               2.539              10.448
	172  3               5.076               16.08              10.405
	173  3               5.319               1.062              10.417
	174  3               2.735               5.548               10.48
	175  4               7.136               1.194               7.604
	176  4               4.463               5.679               7.568
	177  4               4.691              -0.344               7.602
	178  4               2.003               4.138               7.589
	179  2               1.907               1.285               9.254
	180  2               4.393               5.812               9.279
	181  2                2.35               3.944               9.223
	182  2               4.764              -0.388               9.167
	183  2               2.311               2.692               6.848
	184  2               5.017              -1.805               6.837
	185  2                3.14               0.144               7.029
	186  2               5.629               4.522               7.107
	187  2               3.036               5.268               6.799
	188  2               5.649               0.794               6.876
	189  2               1.829               6.824               9.422
	190  2               4.378                2.37               9.234
	191  2               6.053              -0.399              11.366
	192  2               3.499               4.046              11.484
	193  2               1.202               2.456              11.285
	194  2               3.637                6.96              11.438
	195  2               1.121               5.722              11.452
	196  2               3.778               1.196              11.433
	197  1               2.308               -1.28               9.074
	198  1               4.655               3.257               9.063
	199  1               1.905              -0.486              11.713
	200  1               3.415               3.834               12.52
	201  1               0.995               2.829              12.327
	202  1                 3.9              -1.771              12.362
	203  1               3.726               1.499               12.39
	204  1               0.626               5.006              11.729
	205  3               5.267              12.867               3.357
	206  3               7.851               8.357               3.339
	207  3                 7.7              11.354               3.362
	208  3               5.165              15.823               3.367
	209  4                9.44              11.522               0.561
	210  4               6.776              16.043               0.582
	211  4               6.955                9.94               0.511
	212  4               4.318               14.48               0.506
	213  2               4.212              11.722                2.24
	214  2               6.641              16.036               2.195
	215  2               4.551               14.32               2.081
	216  2               7.082               9.829               2.245
	217  2               4.856              13.001              -0.101
	218  2               7.393               8.485              -0.023
	219  2               5.435              10.401               0.025
	220  2               7.887              15.018               0.021
	221  2               5.388              15.607              -0.105
	222  2               7.929              11.197              -0.191
	223  2               4.063               17.01               2.195
	224  2               6.846              12.804               2.291
	225  2               8.426               9.892               4.376
	226  2               5.972              14.331               4.366
	227  2               3.756              12.583               4.424
	228  2               5.881              17.311               4.263
	229  2               3.576              16.023               4.316
	230  2               6.128              11.435               4.286
	231  1               4.506               9.074               2.061
	232  1               7.207               13.66               2.166
	233  1               4.155               9.954               4.599
	234  1               6.912              14.595                4.24
	235  1               3.479              13.292               5.114
	236  1               6.231               8.264               5.284
	237  1               6.364              11.479               5.257
	238  1               3.733              16.225               5.168
	239  3               2.773              11.513              10.386
	240  3               5.292               6.947              10.362
	241  3               5.293              10.039              10.296
	242  3               2.589              14.472              10.444
	243  4               6.966              10.062               7.603
	244  4               4.329              14.619               7.632
	245  4               4.482               8.537               7.638
	246  4               1.856              13.053               7.564
	247  2               1.705              10.371               9.272
	248  2               4.087               14.87               9.236
	249  2                2.14              12.996               9.191
	250  2               4.521               8.524               9.224
	251  2               2.279              11.697               6.907
	252  2               4.728               7.114               6.876
	253  2               2.955                9.06               7.049
	254  2               5.396              13.479               7.214
	255  2               2.869              14.124               6.853
	256  2               5.647               9.515               6.921
	257  2               1.538              15.865                9.48
	258  2               4.368               11.36               9.261
	259  2               5.901               8.664              11.331
	260  2               3.316              13.018              11.372
	261  2               1.177              11.238              11.476
	262  2               3.364              15.998              11.389
	263  2               0.947              14.644              11.519
	264  2               3.684              10.243              11.288
	265  1               2.083               7.684               9.278
	266  1               4.927              12.148               9.196
	267  1               1.337               8.577              12.338
	268  1               4.222              13.156              11.513
	269  1               1.255              11.672              12.433
	270  1               3.242                7.83              11.729
	271  1               3.738              10.062              12.208
	272  1               1.129              14.633              12.675
